# Projected DOS for atomic kind O at iteration step i = 200, E(Fermi) = -0.18543 a.u.
# MO Eigenvalue [a.u.] Occupation s py pz px
     1      -1.50000000     2.000000   0.03526429   0.01682263   0.00066743   0.04688653
     2      -1.46101695     2.000000   0.03406497   0.02902399   0.00878802   0.04766693
     3      -1.42203390     2.000000   0.05477222   0.02226093   0.05633972   0.03224304
     4      -1.38305085     2.000000   0.10862079   0.00810331   0.01235960   0.05578529
     5      -1.34406780     2.000000   0.12808051   0.01973959   0.08132531   0.00641709
     6      -1.30508475     2.000000   0.15960034   0.01285058   0.01318642   0.01581815
     7      -1.26610169     2.000000   0.16962628   0.06937643   0.00988640   0.02204966
     8      -1.22711864     2.000000   0.14920974   0.00361296   0.00792505   0.01720679
     9      -1.18813559     2.000000   0.13056351   0.01179323   0.05860306   0.01519975
    10      -1.14915254     2.000000   0.07076336   0.01895466   0.01605170   0.01136039
    11      -1.11016949     2.000000   0.04443383   0.03739140   0.06189833   0.03576206
    12      -1.07118644     2.000000   0.02721396   0.03382001   0.05632121   0.06237051
    13      -1.03220339     2.000000   0.04386698   0.07275074   0.08940566   0.06883665
    14      -0.99322034     2.000000   0.01443786   0.12190955   0.07448034   0.08468745
    15      -0.95423729     2.000000   0.01737685   0.11159854   0.11501764   0.15048904
    16      -0.91525424     2.000000   0.03696182   0.21757643   0.14108794   0.13650431
    17      -0.87627119     2.000000   0.05260339   0.14272820   0.17736544   0.17249974
    18      -0.83728814     2.000000   0.01009979   0.15526968   0.14795234   0.17211679
    19      -0.79830508     2.000000   0.01627802   0.11414369   0.15641386   0.15614684
    20      -0.75932203     2.000000   0.01807976   0.07306660   0.08485800   0.10988619
    21      -0.72033898     2.000000   0.03547594   0.04885623   0.04525878   0.05388636
    22      -0.68135593     2.000000   0.01741954   0.04030611   0.02714320   0.03901844
    23      -0.64237288     2.000000   0.00026384   0.02371306   0.02088253   0.07520903
    24      -0.60338983     2.000000   0.04703791   0.04088069   0.04408979   0.02861733
    25      -0.56440678     2.000000   0.06687821   0.03082712   0.03009658   0.00180308
    26      -0.52542373     2.000000   0.00651678   0.00654292   0.01197657   0.04229624
    27      -0.48644068     2.000000   0.00543943   0.02740395   0.02479345   0.02769516
    28      -0.44745763     2.000000   0.01963979   0.02237709   0.00813996   0.02788179
    29      -0.40847458     2.000000   0.02604580   0.04906598   0.00711054   0.00250554
    30      -0.36949153     2.000000   0.01319963   0.08866887   0.03741983   0.03362553
    31      -0.33050847     2.000000   0.01993878   0.01081779   0.04172060   0.04316120
    32      -0.29152542     2.000000   0.00432083   0.00870122   0.06977340   0.04549321
    33      -0.25254237     2.000000   0.00919697   0.01779661   0.00976635   0.01529695
    34      -0.21355932     2.000000   0.00315672   0.01185732   0.04401544   0.00342630
    35      -0.17457627     0.000000   0.06898767   0.00272228   0.05355955   0.01071958
    36      -0.13559322     0.000000   0.02888882   0.02173833   0.02561278   0.01379118
    37      -0.09661017     0.000000   0.02965660   0.00120770   0.03859180   0.04080775
    38      -0.05762712     0.000000   0.04281409   0.05302866   0.00328456   0.03375132
    39      -0.01864407     0.000000   0.00040247   0.06781244   0.00572281   0.00488397
    40       0.02033898     0.000000   0.06287996   0.04371414   0.01172033   0.05117558
    41       0.05932203     0.000000   0.01349935   0.01689939   0.00343753   0.00989831
    42       0.09830508     0.000000   0.02332829   0.02428459   0.02634176   0.04119009
    43       0.13728814     0.000000   0.00985104   0.00536223   0.01848879   0.00068056
    44       0.17627119     0.000000   0.01867620   0.03215104   0.01060844   0.03311966
    45       0.21525424     0.000000   0.00968392   0.03450256   0.02135931   0.03544437
    46       0.25423729     0.000000   0.01698885   0.01873810   0.03975440   0.00990870
    47       0.29322034     0.000000   0.00635201   0.01496158   0.06321577   0.00129401
    48       0.33220339     0.000000   0.05992543   0.00397040   0.00203740   0.01644385
    49       0.37118644     0.000000   0.02686816   0.05992400   0.05046979   0.00630874
    50       0.41016949     0.000000   0.02144630   0.03936076   0.00945523   0.05803592
    51       0.44915254     0.000000   0.03804042   0.08249028   0.00702377   0.00565152
    52       0.48813559     0.000000   0.01273388   0.03236637   0.03595560   0.00511165
    53       0.52711864     0.000000   0.06404081   0.01851845   0.01666081   0.00928175
    54       0.56610169     0.000000   0.02944439   0.03494484   0.06026266   0.02878283
    55       0.60508475     0.000000   0.02247669   0.05062043   0.02790794   0.04549106
    56       0.64406780     0.000000   0.00782699   0.02519768   0.00710866   0.00314874
    57       0.68305085     0.000000   0.04091551   0.00709976   0.05342214   0.02409720
    58       0.72203390     0.000000   0.01653575   0.01186527   0.04701175   0.02173028
    59       0.76101695     0.000000   0.01745164   0.01096409   0.04127741   0.01885113
    60       0.80000000     0.000000   0.02185831   0.02314600   0.02427364   0.00437431
