# Projected DOS for atomic kind Ti at iteration step i = 200, E(Fermi) = -0.18543 a.u.
# MO Eigenvalue [a.u.] Occupation s py pz px dxy dyz dz2 dxz dx2
     1      -1.50000000     2.000000   0.01962955   0.05199921   0.03752256   0.04702824   0.09755176   0.06510898   0.00639202   0.01581213   0.00084006
     2      -1.46101695     2.000000   0.05204131   0.04396992   0.03888962   0.00330156   0.05636206   0.02337547   0.04296462   0.01843754   0.04794413
     3      -1.42203390     2.000000   0.06197706   0.00249644   0.00924326   0.03404662   0.06112707   0.00772647   0.02141639   0.01760668   0.02661546
     4      -1.38305085     2.000000   0.04951258   0.02063738   0.02154180   0.10708313   0.02032075   0.02561214   0.04068864   0.03079897   0.05644861
     5      -1.34406780     2.000000   0.05433960   0.04201126   0.04122750   0.03253308   0.03716271   0.02715771   0.03327549   0.01160807   0.00583429
     6      -1.30508475     2.000000   0.07908636   0.04358566   0.01119400   0.03395990   0.00337895   0.01445597   0.03156441   0.07285779   0.01598356
     7      -1.26610169     2.000000   0.10944182   0.03199685   0.01381007   0.07480002   0.04329156   0.04841392   0.08414349   0.01674425   0.00813765
     8      -1.22711864     2.000000   0.12678990   0.03573875   0.03984479   0.01761368   0.02311759   0.04289879   0.00956522   0.06378432   0.05666436
     9      -1.18813559     2.000000   0.14548504   0.02539292   0.00765617   0.03505915   0.02136263   0.00792698   0.03127953   0.01546733   0.02283877
    10      -1.14915254     2.000000   0.12451016   0.01960372   0.02053792   0.06124301   0.02434862   0.02347012   0.00062475   0.02403733   0.02232660
    11      -1.11016949     2.000000   0.10883314   0.00846636   0.02470700   0.00752799   0.08436672   0.07235563   0.06613522   0.04986234   0.01998895
    12      -1.07118644     2.000000   0.10148013   0.02668867   0.07274195   0.02559374   0.03687579   0.04668090   0.01027308   0.04750112   0.01695286
    13      -1.03220339     2.000000   0.07963563   0.10174502   0.03710018   0.02726578   0.02970759   0.07230299   0.00361183   0.02647473   0.01163917
    14      -0.99322034     2.000000   0.02375084   0.10744252   0.03932136   0.07852845   0.00896428   0.01100033   0.06798084   0.04175606   0.01786501
    15      -0.95423729     2.000000   0.08544514   0.10321733   0.07576676   0.09010798   0.01949282   0.06883664   0.03183492   0.01111347   0.07361769
    16      -0.91525424     2.000000   0.05676773   0.07872620   0.10495684   0.16288706   0.14570304   0.02073039   0.04972793   0.10661223   0.01363660
    17      -0.87627119     2.000000   0.04327518   0.10247822   0.11231520   0.08874991   0.05333698   0.00789040   0.00866460   0.05182066   0.08446701
    18      -0.83728814     2.000000   0.02535321   0.09797602   0.18368339   0.10180062   0.04926773   0.02509553   0.06117244   0.04838659   0.03818655
    19      -0.79830508     2.000000   0.10679226   0.14105936   0.14191449   0.14513638   0.04698384   0.01965274   0.01238305   0.00244331   0.03729054
    20      -0.75932203     2.000000   0.02242153   0.11716563   0.15569675   0.15831334   0.00975927   0.08008443   0.01768066   0.00706179   0.02397238
    21      -0.72033898     2.000000   0.06533401   0.09119349   0.10077072   0.13553880   0.02427292   0.07962290   0.02769248   0.06405855   0.08693871
    22      -0.68135593     2.000000   0.08255518   0.14752167   0.07031434   0.08049775   0.07947363   0.06175370   0.07665394   0.03856775   0.05164784
    23      -0.64237288     2.000000   0.00025814   0.05037345   0.05908003   0.11257540   0.01753545   0.04520315   0.15197777   0.01544213   0.09163067
    24      -0.60338983     2.000000   0.06094108   0.07003446   0.04283302   0.07192197   0.09009860   0.02531054   0.09320171   0.04016262   0.11913113
    25      -0.56440678     2.000000   0.02690585   0.08142502   0.02228040   0.04935224   0.05031329   0.05124519   0.09541434   0.09333975   0.09111016
    26      -0.52542373     2.000000   0.01141143   0.13317015   0.10113868   0.04995862   0.07228270   0.13108563   0.12731602   0.07369378   0.15807335
    27      -0.48644068     2.000000   0.03645419   0.03599868   0.11065581   0.01142465   0.13026875   0.10362000   0.14320669   0.08186116   0.18725007
    28      -0.44745763     2.000000   0.07335226   0.10779836   0.06570713   0.05617528   0.18432341   0.23773109   0.14943766   0.11089018   0.10793711
    29      -0.40847458     2.000000   0.08643488   0.04983084   0.01275188   0.03935486   0.12148924   0.11855874   0.08145283   0.16849573   0.08667037
    30      -0.36949153     2.000000   0.01331937   0.01176888   0.02792675   0.02373731   0.14745563   0.10459130   0.07294272   0.09947760   0.05535912
    31      -0.33050847     2.000000   0.03607790   0.01587215   0.00491177   0.10470585   0.16323051   0.10385510   0.07503369   0.14018334   0.09643797
    32      -0.29152542     2.000000   0.01313746   0.02401979   0.08724192   0.04638455   0.08918120   0.12198172   0.04568746   0.07964605   0.02473456
    33      -0.25254237     2.000000   0.01460856   0.00517744   0.01260189   0.00763115   0.12057607   0.17533439   0.02377119   0.05582709   0.02672838
    34      -0.21355932     2.000000   0.01859573   0.08783674   0.01640043   0.08636816   0.10660392   0.07310225   0.02221707   0.03297707   0.05843574
    35      -0.17457627     0.000000   0.01672281   0.06500236   0.02913289   0.08661571   0.07599887   0.03908261   0.08972634   0.03907793   0.04392902
    36      -0.13559322     0.000000   0.01482855   0.00332731   0.03487121   0.04947922   0.06774122   0.04794356   0.01052690   0.06738840   0.03853779
    37      -0.09661017     0.000000   0.09103231   0.03653874   0.07860202   0.00334766   0.06269283   0.03000647   0.07591313   0.03596916   0.03529823
    38      -0.05762712     0.000000   0.05068587   0.00163911   0.06082801   0.03355701   0.01730802   0.05947315   0.03055002   0.11627203   0.01533028
    39      -0.01864407     0.000000   0.00360168   0.02069451   0.08081048   0.10316191   0.03019627   0.03018642   0.07911178   0.07443856   0.01844989
    40       0.02033898     0.000000   0.04232920   0.02854718   0.04068818   0.05342358   0.01186050   0.01193664   0.01352542   0.04338386   0.00738470
    41       0.05932203     0.000000   0.00762613   0.01916969   0.04999121   0.05292680   0.00631630   0.07413863   0.03718133   0.04117835   0.01011723
    42       0.09830508     0.000000   0.04221926   0.00057130   0.06644803   0.04283970   0.04210902   0.02772384   0.11638305   0.01027610   0.10017651
    43       0.13728814     0.000000   0.08021272   0.02288497   0.00539402   0.06547753   0.08011741   0.06258679   0.08006397   0.03971125   0.02198191
    44       0.17627119     0.000000   0.02620939   0.01381371   0.07063829   0.11550517   0.00271866   0.02358978   0.02296930   0.03509866   0.00691208
    45       0.21525424     0.000000   0.03800665   0.01146057   0.02650324   0.03523366   0.00898077   0.00983900   0.04102643   0.01968725   0.02605836
    46       0.25423729     0.000000   0.01329194   0.00587711   0.04147595   0.09965302   0.06482365   0.07410930   0.11668081   0.03391326   0.03747170
    47       0.29322034     0.000000   0.01424420   0.00988950   0.05446087   0.06638431   0.00345690   0.06767930   0.00460633   0.04186992   0.02972002
    48       0.33220339     0.000000   0.07402683   0.04440669   0.01790083   0.04017925   0.08603849   0.06910908   0.01964137   0.05202720   0.02373485
    49       0.37118644     0.000000   0.00655433   0.09154529   0.04641485   0.03025004   0.02669501   0.05348762   0.03271416   0.02139452   0.00946222
    50       0.41016949     0.000000   0.01643310   0.01809609   0.06603308   0.01713931   0.07384289   0.05336112   0.01657441   0.05572962   0.01916886
    51       0.44915254     0.000000   0.00655688   0.01743879   0.09755063   0.10384903   0.00346906   0.00800953   0.05381201   0.04228305   0.01665352
    52       0.48813559     0.000000   0.00129314   0.01569541   0.04166844   0.07947837   0.10364917   0.05586921   0.02293376   0.01465958   0.09686156
    53       0.52711864     0.000000   0.05529967   0.04810456   0.01738542   0.02035391   0.01421819   0.00926628   0.03095856   0.01696292   0.05319258
    54       0.56610169     0.000000   0.05709691   0.00031695   0.12988369   0.01115399   0.07166073   0.00457601   0.02903885   0.00283916   0.00852038
    55       0.60508475     0.000000   0.03897412   0.02151507   0.04257686   0.03327926   0.05426435   0.01832657   0.01431244   0.02269828   0.01543365
    56       0.64406780     0.000000   0.04677736   0.09157030   0.01678037   0.09954060   0.07475304   0.06819311   0.04475925   0.03597401   0.07512517
    57       0.68305085     0.000000   0.14822644   0.02717478   0.12102075   0.02174421   0.02797861   0.02325401   0.07804792   0.01486617   0.00497387
    58       0.72203390     0.000000   0.00430503   0.03954031   0.01723226   0.03341630   0.03441861   0.04489077   0.08144685   0.04850748   0.04438478
    59       0.76101695     0.000000   0.06678922   0.00956720   0.07019107   0.02212679   0.07275228   0.00657429   0.01291144   0.07823590   0.01808852
    60       0.80000000     0.000000   0.04705610   0.02242821   0.02261670   0.07828795   0.03187355   0.02693857   0.05739063   0.11971302   0.03932829
