# Projected DOS for atomic kind O at iteration step i = 200, E(Fermi) = -0.18543 a.u.
# MO Eigenvalue [a.u.] Occupation s py pz px
     1      -1.50000000     2.000000   0.01994818   0.00000000   0.00000000   0.00000000
     2      -1.46101695     2.000000   0.03251828   0.00000003   0.00000003   0.00000003
     3      -1.42203390     2.000000   0.04770012   0.00000024   0.00000024   0.00000024
     4      -1.38305085     2.000000   0.06296204   0.00000171   0.00000171   0.00000171
     5      -1.34406780     2.000000   0.07478349   0.00001045   0.00001045   0.00001045
     6      -1.30508475     2.000000   0.07992821   0.00005467   0.00005467   0.00005467
     7      -1.26610169     2.000000   0.07687091   0.00024581   0.00024581   0.00024581
     8      -1.22711864     2.000000   0.06652604   0.00094932   0.00094932   0.00094932
     9      -1.18813559     2.000000   0.05180726   0.00314940   0.00314940   0.00314940
    10      -1.14915254     2.000000   0.03630552   0.00897522   0.00897522   0.00897522
    11      -1.11016949     2.000000   0.02290094   0.02197173   0.02197173   0.02197173
    12      -1.07118644     2.000000   0.01303001   0.04620451   0.04620451   0.04620451
    13      -1.03220339     2.000000   0.00679266   0.08346526   0.08346526   0.08346526
    14      -0.99322034     2.000000   0.00359043   0.12951747   0.12951747   0.12951747
    15      -0.95423729     2.000000   0.00283917   0.17264426   0.17264426   0.17264426
    16      -0.91525424     2.000000   0.00441252   0.19768657   0.19768657   0.19768657
    17      -0.87627119     2.000000   0.00861650   0.19444795   0.19444795   0.19444795
    18      -0.83728814     2.000000   0.01563489   0.16429744   0.16429744   0.16429744
    19      -0.79830508     2.000000   0.02468520   0.11925029   0.11925029   0.11925029
    20      -0.75932203     2.000000   0.03354935   0.07435144   0.07435144   0.07435144
    21      -0.72033898     2.000000   0.03918183   0.03982190   0.03982190   0.03982190
    22      -0.68135593     2.000000   0.03931094   0.01832289   0.01832289   0.01832289
    23      -0.64237288     2.000000   0.03388037   0.00725660   0.00725660   0.00725660
    24      -0.60338983     2.000000   0.02508333   0.00257122   0.00257122   0.00257122
    25      -0.56440678     2.000000   0.01595231   0.00135379   0.00135379   0.00135379
    26      -0.52542373     2.000000   0.00871491   0.00301064   0.00301064   0.00301064
    27      -0.48644068     2.000000   0.00408982   0.00996309   0.00996309   0.00996309
    28      -0.44745763     2.000000   0.00164872   0.02744448   0.02744448   0.02744448
    29      -0.40847458     2.000000   0.00057094   0.05982228   0.05982228   0.05982228
    30      -0.36949153     2.000000   0.00016984   0.10285966   0.10285966   0.10285966
    31      -0.33050847     2.000000   0.00004340   0.13947973   0.13947973   0.13947973
    32      -0.29152542     2.000000   0.00000953   0.14916074   0.14916074   0.14916074
    33      -0.25254237     2.000000   0.00000180   0.12579834   0.12579834   0.12579834
    34      -0.21355932     2.000000   0.00000029   0.08367046   0.08367046   0.08367046
    35      -0.17457627     0.000000   0.00000004   0.04388806   0.04388806   0.04388806
    36      -0.13559322     0.000000   0.00000000   0.01815505   0.01815505   0.01815505
    37      -0.09661017     0.000000   0.00000000   0.00592278   0.00592278   0.00592278
    38      -0.05762712     0.000000   0.00000000   0.00152381   0.00152381   0.00152381
    39      -0.01864407     0.000000   0.00000000   0.00030918   0.00030918   0.00030918
    40       0.02033898     0.000000   0.00000000   0.00004947   0.00004947   0.00004947
    41       0.05932203     0.000000   0.00000000   0.00000624   0.00000624   0.00000624
    42       0.09830508     0.000000   0.00000000   0.00000062   0.00000062   0.00000062
    43       0.13728814     0.000000   0.00000000   0.00000005   0.00000005   0.00000005
    44       0.17627119     0.000000   0.00000000   0.00000000   0.00000000   0.00000000
    45       0.21525424     0.000000   0.00000000   0.00000000   0.00000000   0.00000000
    46       0.25423729     0.000000   0.00000000   0.00000000   0.00000000   0.00000000
    47       0.29322034     0.000000   0.00000000   0.00000000   0.00000000   0.00000000
    48       0.33220339     0.000000   0.00000000   0.00000000   0.00000000   0.00000000
    49       0.37118644     0.000000   0.00000000   0.00000000   0.00000000   0.00000000
    50       0.41016949     0.000000   0.00000000   0.00000000   0.00000000   0.00000000
    51       0.44915254     0.000000   0.00000000   0.00000000   0.00000000   0.00000000
    52       0.48813559     0.000000   0.00000000   0.00000000   0.00000000   0.00000000
    53       0.52711864     0.000000   0.00000000   0.00000000   0.00000000   0.00000000
    54       0.56610169     0.000000   0.00000000   0.00000000   0.00000000   0.00000000
    55       0.60508475     0.000000   0.00000000   0.00000000   0.00000000   0.00000000
    56       0.64406780     0.000000   0.00000000   0.00000000   0.00000000   0.00000000
    57       0.68305085     0.000000   0.00000000   0.00000000   0.00000000   0.00000000
    58       0.72203390     0.000000   0.00000000   0.00000000   0.00000000   0.00000000
    59       0.76101695     0.000000   0.00000000   0.00000000   0.00000000   0.00000000
    60       0.80000000     0.000000   0.00000000   0.00000000   0.00000000   0.00000000
