# Projected DOS for atomic kind Ti at iteration step i = 200, E(Fermi) = -0.18543 a.u.
# MO Eigenvalue [a.u.] Occupation s py pz px dxy dyz dz2 dxz dx2
     1      -1.50000000     2.000000   0.00676676   0.00000000   0.00000000   0.00000000   0.00000000   0.00000000   0.00000000   0.00000000   0.00000000
     2      -1.46101695     2.000000   0.01100144   0.00000001   0.00000001   0.00000001   0.00000000   0.00000000   0.00000000   0.00000000   0.00000000
     3      -1.42203390     2.000000   0.01671804   0.00000003   0.00000003   0.00000003   0.00000000   0.00000000   0.00000000   0.00000000   0.00000000
     4      -1.38305085     2.000000   0.02374589   0.00000015   0.00000015   0.00000015   0.00000000   0.00000000   0.00000000   0.00000000   0.00000000
     5      -1.34406780     2.000000   0.03152526   0.00000069   0.00000069   0.00000069   0.00000000   0.00000000   0.00000000   0.00000000   0.00000000
     6      -1.30508475     2.000000   0.03911975   0.00000284   0.00000284   0.00000284   0.00000000   0.00000000   0.00000000   0.00000000   0.00000000
     7      -1.26610169     2.000000   0.04537334   0.00001059   0.00001059   0.00001059   0.00000000   0.00000000   0.00000000   0.00000000   0.00000000
     8      -1.22711864     2.000000   0.04918954   0.00003548   0.00003548   0.00003548   0.00000000   0.00000000   0.00000000   0.00000000   0.00000000
     9      -1.18813559     2.000000   0.04984402   0.00010698   0.00010698   0.00010698   0.00000000   0.00000000   0.00000000   0.00000000   0.00000000
    10      -1.14915254     2.000000   0.04720908   0.00029021   0.00029021   0.00029021   0.00000000   0.00000000   0.00000000   0.00000000   0.00000000
    11      -1.11016949     2.000000   0.04179537   0.00070842   0.00070842   0.00070842   0.00000000   0.00000000   0.00000000   0.00000000   0.00000000
    12      -1.07118644     2.000000   0.03459401   0.00155611   0.00155611   0.00155611   0.00000000   0.00000000   0.00000001   0.00000000   0.00000001
    13      -1.03220339     2.000000   0.02679055   0.00307580   0.00307580   0.00307580   0.00000000   0.00000000   0.00000013   0.00000000   0.00000007
    14      -0.99322034     2.000000   0.01947348   0.00547072   0.00547072   0.00547072   0.00000000   0.00000000   0.00000094   0.00000000   0.00000052
    15      -0.95423729     2.000000   0.01344789   0.00875584   0.00875584   0.00875584   0.00000003   0.00000003   0.00000595   0.00000003   0.00000331
    16      -0.91525424     2.000000   0.00920177   0.01261010   0.01261010   0.01261010   0.00000026   0.00000021   0.00003242   0.00000021   0.00001801
    17      -0.87627119     2.000000   0.00698927   0.01634207   0.01634207   0.01634207   0.00000178   0.00000142   0.00015167   0.00000142   0.00008426
    18      -0.83728814     2.000000   0.00693381   0.01905738   0.01905738   0.01905738   0.00001056   0.00000845   0.00060944   0.00000845   0.00033858
    19      -0.79830508     2.000000   0.00904378   0.01999801   0.01999801   0.01999801   0.00005384   0.00004307   0.00210362   0.00004307   0.00116868
    20      -0.75932203     2.000000   0.01309443   0.01888329   0.01888329   0.01888329   0.00023575   0.00018860   0.00623738   0.00018860   0.00346521
    21      -0.72033898     2.000000   0.01844549   0.01604487   0.01604487   0.01604487   0.00088673   0.00070938   0.01588688   0.00070938   0.00882604
    22      -0.68135593     2.000000   0.02396707   0.01226768   0.01226768   0.01226768   0.00286503   0.00229202   0.03475968   0.00229202   0.01931093
    23      -0.64237288     2.000000   0.02823672   0.00844026   0.00844026   0.00844026   0.00795185   0.00636148   0.06533024   0.00636148   0.03629458
    24      -0.60338983     2.000000   0.03000639   0.00522537   0.00522537   0.00522537   0.01895872   0.01516698   0.10547606   0.01516698   0.05859781
    25      -0.56440678     2.000000   0.02871525   0.00291102   0.00291102   0.00291102   0.03882855   0.03106284   0.14628331   0.03106284   0.08126850
    26      -0.52542373     2.000000   0.02473372   0.00145929   0.00145929   0.00145929   0.06831161   0.05464929   0.17427570   0.05464929   0.09681984
    27      -0.48644068     2.000000   0.01917220   0.00065827   0.00065827   0.00065827   0.10323787   0.08259030   0.17835289   0.08259030   0.09908494
    28      -0.44745763     2.000000   0.01337320   0.00026720   0.00026720   0.00026720   0.13402468   0.10721975   0.15679227   0.10721975   0.08710682
    29      -0.40847458     2.000000   0.00839405   0.00009760   0.00009760   0.00009760   0.14946233   0.11956986   0.11840509   0.11956986   0.06578060
    30      -0.36949153     2.000000   0.00474107   0.00003208   0.00003208   0.00003208   0.14317919   0.11454335   0.07680992   0.11454335   0.04267218
    31      -0.33050847     2.000000   0.00240963   0.00000949   0.00000949   0.00000949   0.11782279   0.09425823   0.04280214   0.09425823   0.02377896
    32      -0.29152542     2.000000   0.00110203   0.00000252   0.00000252   0.00000252   0.08328751   0.06663001   0.02048872   0.06663001   0.01138262
    33      -0.25254237     2.000000   0.00045352   0.00000060   0.00000060   0.00000060   0.05057451   0.04045961   0.00842493   0.04045961   0.00468051
    34      -0.21355932     2.000000   0.00016795   0.00000013   0.00000013   0.00000013   0.02638060   0.02110448   0.00297608   0.02110448   0.00165337
    35      -0.17457627     0.000000   0.00005597   0.00000003   0.00000003   0.00000003   0.01182059   0.00945647   0.00090505   0.00945647   0.00050269
    36      -0.13559322     0.000000   0.00001678   0.00000000   0.00000000   0.00000000   0.00454986   0.00363989   0.00025347   0.00363989   0.00013981
    37      -0.09661017     0.000000   0.00000453   0.00000000   0.00000000   0.00000000   0.00150482   0.00120385   0.00017691   0.00120385   0.00009138
    38      -0.05762712     0.000000   0.00000110   0.00000000   0.00000000   0.00000000   0.00043185   0.00034548   0.00068193   0.00034548   0.00034153
    39      -0.01864407     0.000000   0.00000024   0.00000000   0.00000000   0.00000000   0.00014014   0.00011211   0.00286708   0.00011211   0.00143363
    40       0.02033898     0.000000   0.00000005   0.00000000   0.00000000   0.00000000   0.00024386   0.00019509   0.00963875   0.00019509   0.00481939
    41       0.05932203     0.000000   0.00000001   0.00000000   0.00000000   0.00000000   0.00108691   0.00086953   0.02556889   0.00086953   0.01278445
    42       0.09830508     0.000000   0.00000000   0.00000000   0.00000000   0.00000000   0.00416671   0.00333336   0.05349212   0.00333336   0.02674606
    43       0.13728814     0.000000   0.00000000   0.00000000   0.00000000   0.00000000   0.01263923   0.01011138   0.08825616   0.01011138   0.04412808
    44       0.17627119     0.000000   0.00000000   0.00000000   0.00000000   0.00000000   0.03024010   0.02419208   0.11483576   0.02419208   0.05741788
    45       0.21525424     0.000000   0.00000000   0.00000000   0.00000000   0.00000000   0.05705916   0.04564733   0.11783822   0.04564733   0.05891911
    46       0.25423729     0.000000   0.00000000   0.00000000   0.00000000   0.00000000   0.08490719   0.06792575   0.09536129   0.06792575   0.04768064
    47       0.29322034     0.000000   0.00000000   0.00000000   0.00000000   0.00000000   0.09964155   0.07971324   0.06086042   0.07971324   0.03043021
    48       0.33220339     0.000000   0.00000000   0.00000000   0.00000000   0.00000000   0.09221751   0.07377401   0.03063195   0.07377401   0.01531598
    49       0.37118644     0.000000   0.00000000   0.00000000   0.00000000   0.00000000   0.06730746   0.05384596   0.01215882   0.05384596   0.00607941
    50       0.41016949     0.000000   0.00000000   0.00000000   0.00000000   0.00000000   0.03874270   0.03099416   0.00380614   0.03099416   0.00190307
    51       0.44915254     0.000000   0.00000000   0.00000000   0.00000000   0.00000000   0.01758707   0.01406965   0.00093963   0.01406965   0.00046981
    52       0.48813559     0.000000   0.00000000   0.00000000   0.00000000   0.00000000   0.00629613   0.00503691   0.00018294   0.00503691   0.00009147
    53       0.52711864     0.000000   0.00000000   0.00000000   0.00000000   0.00000000   0.00177759   0.00142207   0.00002809   0.00142207   0.00001404
    54       0.56610169     0.000000   0.00000000   0.00000000   0.00000000   0.00000000   0.00039579   0.00031663   0.00000340   0.00031663   0.00000170
    55       0.60508475     0.000000   0.00000000   0.00000000   0.00000000   0.00000000   0.00006950   0.00005560   0.00000032   0.00005560   0.00000016
    56       0.64406780     0.000000   0.00000000   0.00000000   0.00000000   0.00000000   0.00000962   0.00000770   0.00000002   0.00000770   0.00000001
    57       0.68305085     0.000000   0.00000000   0.00000000   0.00000000   0.00000000   0.00000105   0.00000084   0.00000000   0.00000084   0.00000000
    58       0.72203390     0.000000   0.00000000   0.00000000   0.00000000   0.00000000   0.00000009   0.00000007   0.00000000   0.00000007   0.00000000
    59       0.76101695     0.000000   0.00000000   0.00000000   0.00000000   0.00000000   0.00000001   0.00000000   0.00000000   0.00000000   0.00000000
    60       0.80000000     0.000000   0.00000000   0.00000000   0.00000000   0.00000000   0.00000000   0.00000000   0.00000000   0.00000000   0.00000000
