# Projected DOS for atomic kind Ti at iteration step i = 200, E(Fermi) = -0.18543 a.u.
# MO Eigenvalue [a.u.] Occupation s py pz px dxy dyz dz2 dxz dx2
     1      -1.50000000     2.000000   0.08689430   0.04131147   0.01238330   0.00896133   0.01266888   0.00795924   0.01016941   0.05042680   0.03534248
     2      -1.46101695     2.000000   0.03893283   0.01925191   0.02782668   0.01482091   0.10175367   0.00435471   0.01535416   0.03767638   0.05161313
     3      -1.42203390     2.000000   0.07399611   0.04443992   0.00353407   0.01671481   0.00255710   0.03827676   0.04500923   0.03697063   0.00798242
     4      -1.38305085     2.000000   0.05414950   0.02742169   0.00939897   0.07240666   0.00339901   0.01310179   0.04498474   0.00949217   0.07274112
     5      -1.34406780     2.000000   0.10215401   0.06239893   0.01262730   0.01817415   0.12049610   0.05781738   0.01468895   0.05360665   0.03571982
     6      -1.30508475     2.000000   0.15214091   0.05883700   0.04187943   0.01177868   0.08055581   0.06111872   0.01245181   0.09106494   0.08258796
     7      -1.26610169     2.000000   0.13362784   0.02120493   0.02605402   0.04065467   0.01208299   0.08874810   0.02577052   0.02887694   0.06372236
     8      -1.22711864     2.000000   0.11470204   0.03191778   0.02714359   0.03823334   0.02240497   0.08427987   0.02690172   0.05171540   0.01176381
     9      -1.18813559     2.000000   0.16098012   0.02259303   0.04060686   0.06440865   0.03569101   0.01208223   0.03069884   0.07255894   0.02203262
    10      -1.14915254     2.000000   0.08868033   0.01423869   0.03177631   0.02434983   0.02667262   0.02058192   0.06813215   0.05202930   0.12063903
    11      -1.11016949     2.000000   0.15652864   0.12950992   0.02230698   0.09888542   0.01552420   0.01431115   0.00949628   0.05566940   0.02897815
    12      -1.07118644     2.000000   0.08588675   0.07945882   0.03969837   0.10737279   0.00859802   0.01686626   0.00710064   0.03076284   0.08653406
    13      -1.03220339     2.000000   0.05037410   0.02941048   0.10227853   0.01859592   0.08339442   0.05518707   0.02936523   0.01597005   0.04345463
    14      -0.99322034     2.000000   0.03567158   0.07919017   0.03475381   0.10316236   0.00087833   0.04512135   0.01712665   0.00407958   0.08529221
    15      -0.95423729     2.000000   0.09611672   0.05546827   0.05750087   0.15960215   0.03924316   0.01361945   0.03573028   0.06584247   0.04182694
    16      -0.91525424     2.000000   0.02536165   0.16681486   0.06869417   0.06706990   0.00835070   0.04084310   0.03137942   0.06259056   0.02619130
    17      -0.87627119     2.000000   0.02542737   0.08919036   0.10477529   0.14015392   0.02295942   0.02125608   0.01608958   0.01230547   0.04798840
    18      -0.83728814     2.000000   0.11411332   0.12164201   0.11942757   0.19632456   0.04824515   0.04582103   0.01112490   0.05571152   0.01332270
    19      -0.79830508     2.000000   0.05211252   0.09180668   0.14141764   0.13775690   0.04573557   0.02813428   0.01374611   0.03258107   0.00335165
    20      -0.75932203     2.000000   0.03527620   0.14042759   0.08927792   0.09920819   0.06140338   0.07878273   0.04028142   0.01815646   0.05710799
    21      -0.72033898     2.000000   0.00486757   0.13593761   0.19357356   0.15436860   0.04775703   0.07467165   0.02624086   0.03997857   0.06911955
    22      -0.68135593     2.000000   0.05599282   0.08658662   0.06710965   0.09163287   0.01322749   0.01775112   0.02992757   0.04273231   0.06237203
    23      -0.64237288     2.000000   0.08099754   0.15898803   0.09671187   0.10601085   0.05927567   0.10123629   0.04098203   0.05478643   0.12591001
    24      -0.60338983     2.000000   0.02581575   0.04905708   0.07512778   0.03104381   0.03087512   0.06666528   0.15548392   0.10517030   0.10984857
    25      -0.56440678     2.000000   0.04604269   0.06067075   0.04990111   0.04004707   0.09011737   0.05940266   0.10727676   0.05947942   0.08731562
    26      -0.52542373     2.000000   0.08918059   0.01366399   0.03729254   0.07347499   0.12727621   0.12963515   0.15173872   0.05594605   0.15130895
    27      -0.48644068     2.000000   0.00060266   0.01465552   0.05918922   0.02436522   0.06374822   0.12586153   0.09243032   0.06471541   0.17974852
    28      -0.44745763     2.000000   0.04471067   0.00250720   0.01437430   0.00414555   0.08699183   0.13096749   0.09430331   0.11415104   0.14926649
    29      -0.40847458     2.000000   0.02556109   0.02030930   0.09008144   0.00688030   0.13728665   0.14046277   0.12664416   0.08944724   0.11760459
    30      -0.36949153     2.000000   0.05418494   0.01748910   0.01922286   0.06462541   0.14465456   0.09626701   0.12110656   0.10561090   0.06975782
    31      -0.33050847     2.000000   0.01010416   0.02897552   0.01272506   0.02527870   0.11406536   0.09823470   0.06152309   0.09486727   0.05508366
    32      -0.29152542     2.000000   0.05697145   0.02408476   0.07191155   0.05812668   0.17441353   0.16167307   0.02767186   0.07012667   0.03209691
    33      -0.25254237     2.000000   0.06070949   0.13364746   0.01980243   0.07807765   0.10758864   0.07018992   0.05257481   0.09591690   0.03124332
    34      -0.21355932     2.000000   0.07137426   0.09187064   0.01679827   0.09525432   0.03617403   0.12207976   0.01231609   0.04094810   0.02592488
    35      -0.17457627     0.000000   0.15894268   0.04256455   0.03536349   0.04845016   0.03888366   0.04527954   0.04895829   0.02234631   0.01745702
    36      -0.13559322     0.000000   0.00069926   0.01682921   0.02124834   0.09684840   0.04463865   0.06041099   0.07357899   0.01423058   0.00566309
    37      -0.09661017     0.000000   0.03467531   0.04155160   0.06710877   0.02034720   0.03477972   0.00786538   0.01448987   0.05593066   0.03676079
    38      -0.05762712     0.000000   0.00315012   0.09459731   0.09792957   0.00061597   0.01348673   0.00760937   0.00158280   0.01371636   0.04756615
    39      -0.01864407     0.000000   0.05555525   0.05859858   0.05466619   0.01444583   0.06321379   0.02253340   0.12514052   0.08616607   0.04170737
    40       0.02033898     0.000000   0.02788644   0.02041943   0.00192906   0.01558732   0.05281165   0.03414554   0.04313101   0.02428845   0.07679721
    41       0.05932203     0.000000   0.01948459   0.00512766   0.00737212   0.07941381   0.03122099   0.10312552   0.01127527   0.06396144   0.00349968
    42       0.09830508     0.000000   0.05381226   0.03758779   0.01985167   0.02777910   0.03114033   0.04940220   0.05787620   0.07184703   0.02647149
    43       0.13728814     0.000000   0.06817144   0.09403992   0.01589533   0.04335026   0.00596959   0.02858076   0.00830805   0.09411704   0.00848615
    44       0.17627119     0.000000   0.02068962   0.01161347   0.00378566   0.00030083   0.02241814   0.05826732   0.08236973   0.01548295   0.02947737
    45       0.21525424     0.000000   0.05754323   0.00439384   0.04701447   0.04329843   0.01058090   0.04432011   0.02453834   0.06001572   0.01446796
    46       0.25423729     0.000000   0.01778492   0.01679206   0.14652972   0.01914429   0.18242072   0.08617325   0.02258843   0.02387654   0.05812144
    47       0.29322034     0.000000   0.03560510   0.06852705   0.02420151   0.11214602   0.00009601   0.02040182   0.08084372   0.00655137   0.05011720
    48       0.33220339     0.000000   0.00548637   0.00178054   0.06823708   0.01279160   0.03710961   0.04621789   0.00173059   0.01413979   0.00530910
    49       0.37118644     0.000000   0.01115610   0.03084071   0.04998561   0.05207938   0.05523396   0.02061684   0.07084210   0.02219064   0.02316849
    50       0.41016949     0.000000   0.07653576   0.01147409   0.03677915   0.01871932   0.03159907   0.07021345   0.01655201   0.01513099   0.02413951
    51       0.44915254     0.000000   0.04352778   0.07396373   0.08971850   0.06574039   0.00548671   0.01763601   0.03834114   0.00605890   0.00653821
    52       0.48813559     0.000000   0.04118766   0.00296413   0.03646435   0.02072365   0.03169552   0.00014966   0.01701050   0.03350396   0.01874207
    53       0.52711864     0.000000   0.03781241   0.01894213   0.06174065   0.07211524   0.02503724   0.08275477   0.05225219   0.05105226   0.00260867
    54       0.56610169     0.000000   0.01369253   0.01684160   0.03098510   0.01699377   0.01580239   0.02049142   0.03080673   0.10539767   0.01822191
    55       0.60508475     0.000000   0.10901050   0.00180300   0.00023165   0.05227661   0.05938172   0.01013875   0.02501805   0.02425806   0.02639588
    56       0.64406780     0.000000   0.00006963   0.04930682   0.02788857   0.04028393   0.03387007   0.04773959   0.04869471   0.03492832   0.00509629
    57       0.68305085     0.000000   0.03811617   0.04296030   0.02688313   0.02712972   0.04778126   0.02187561   0.06208778   0.01020343   0.00548239
    58       0.72203390     0.000000   0.12225651   0.06886578   0.07360073   0.00749212   0.02055860   0.00591740   0.02223634   0.00768426   0.07270251
    59       0.76101695     0.000000   0.02282356   0.05661173   0.03221836   0.00301259   0.05359813   0.02275119   0.07225630   0.00386781   0.00984428
    60       0.80000000     0.000000   0.05573085   0.01146463   0.07963971   0.04564390   0.01133930   0.06595066   0.14046054   0.02932925   0.07176501
