# Projected DOS for atomic kind O at iteration step i = 200, E(Fermi) = -0.18543 a.u.
# MO Eigenvalue [a.u.] Occupation s py pz px
     1      -1.50000000     2.000000   0.02761287   0.00453743   0.01297784   0.00185750
     2      -1.46101695     2.000000   0.04434224   0.01225002   0.04194331   0.04630878
     3      -1.42203390     2.000000   0.09083501   0.00830118   0.01788285   0.00025535
     4      -1.38305085     2.000000   0.13009460   0.00541220   0.01968293   0.03679007
     5      -1.34406780     2.000000   0.18349555   0.01484453   0.02921774   0.03726663
     6      -1.30508475     2.000000   0.18370919   0.01846398   0.01799142   0.01563082
     7      -1.26610169     2.000000   0.17454482   0.02120605   0.04085878   0.02402234
     8      -1.22711864     2.000000   0.15412059   0.02591859   0.04533394   0.00886222
     9      -1.18813559     2.000000   0.11480192   0.00957516   0.00542299   0.00473171
    10      -1.14915254     2.000000   0.08209144   0.01756953   0.01729245   0.03639023
    11      -1.11016949     2.000000   0.03826023   0.01657205   0.03897320   0.02355368
    12      -1.07118644     2.000000   0.01646995   0.04275804   0.08779362   0.03760677
    13      -1.03220339     2.000000   0.01147426   0.12552248   0.08942517   0.07049115
    14      -0.99322034     2.000000   0.02193213   0.13858933   0.10208624   0.13579143
    15      -0.95423729     2.000000   0.00223138   0.13060003   0.13214709   0.12959708
    16      -0.91525424     2.000000   0.05165540   0.21785325   0.20831130   0.16456005
    17      -0.87627119     2.000000   0.00045477   0.16653910   0.16002858   0.15736334
    18      -0.83728814     2.000000   0.03057468   0.15412895   0.12874482   0.15210281
    19      -0.79830508     2.000000   0.00817987   0.10628221   0.11037222   0.09275611
    20      -0.75932203     2.000000   0.00004026   0.09995218   0.12928973   0.09829409
    21      -0.72033898     2.000000   0.03561212   0.04076413   0.03750456   0.07508608
    22      -0.68135593     2.000000   0.02955474   0.03956611   0.08746358   0.06779312
    23      -0.64237288     2.000000   0.01235248   0.01633809   0.03990671   0.06267451
    24      -0.60338983     2.000000   0.00350641   0.03177922   0.00438918   0.04984984
    25      -0.56440678     2.000000   0.02285923   0.00499649   0.01152396   0.01306183
    26      -0.52542373     2.000000   0.03961467   0.02577527   0.02414105   0.01912043
    27      -0.48644068     2.000000   0.00031916   0.04132061   0.00951492   0.01098990
    28      -0.44745763     2.000000   0.01838896   0.00423500   0.04595873   0.03023068
    29      -0.40847458     2.000000   0.00769962   0.02250451   0.05801466   0.05881539
    30      -0.36949153     2.000000   0.03684000   0.02779611   0.04454768   0.03174855
    31      -0.33050847     2.000000   0.03967623   0.01458584   0.01260681   0.00307191
    32      -0.29152542     2.000000   0.01951691   0.02022638   0.02137011   0.02638529
    33      -0.25254237     2.000000   0.06844899   0.00892533   0.02660277   0.01467232
    34      -0.21355932     2.000000   0.00557870   0.02140662   0.07955125   0.04134028
    35      -0.17457627     0.000000   0.05431856   0.06749351   0.03586077   0.03974867
    36      -0.13559322     0.000000   0.00133309   0.03871691   0.01232948   0.02347676
    37      -0.09661017     0.000000   0.02702691   0.01571853   0.02186143   0.01729942
    38      -0.05762712     0.000000   0.01678621   0.01698563   0.01648658   0.03368305
    39      -0.01864407     0.000000   0.03552385   0.00259517   0.00981030   0.02377577
    40       0.02033898     0.000000   0.00079756   0.01711611   0.01854572   0.04655640
    41       0.05932203     0.000000   0.03830942   0.03003874   0.05050759   0.01592930
    42       0.09830508     0.000000   0.03134618   0.00203960   0.01236448   0.05423091
    43       0.13728814     0.000000   0.00514694   0.04678150   0.02901898   0.04550378
    44       0.17627119     0.000000   0.02390733   0.00905912   0.02176175   0.01885454
    45       0.21525424     0.000000   0.02323484   0.00115615   0.05218944   0.01446697
    46       0.25423729     0.000000   0.02998009   0.00292240   0.02387334   0.01341473
    47       0.29322034     0.000000   0.00148677   0.00346497   0.02508171   0.01986245
    48       0.33220339     0.000000   0.01950747   0.01780664   0.04610897   0.04348034
    49       0.37118644     0.000000   0.01124834   0.01119157   0.01870802   0.00070066
    50       0.41016949     0.000000   0.01799248   0.04860211   0.01091094   0.00654087
    51       0.44915254     0.000000   0.03580856   0.06511846   0.06042308   0.02387516
    52       0.48813559     0.000000   0.00181405   0.00751339   0.03979188   0.00069701
    53       0.52711864     0.000000   0.06010528   0.02472599   0.00509120   0.01317162
    54       0.56610169     0.000000   0.01183719   0.06387594   0.00772921   0.02536449
    55       0.60508475     0.000000   0.04726858   0.01984251   0.03472394   0.02896054
    56       0.64406780     0.000000   0.00160445   0.06253206   0.01842811   0.02261565
    57       0.68305085     0.000000   0.00753308   0.07442126   0.02989256   0.03698706
    58       0.72203390     0.000000   0.08333983   0.01042570   0.03540002   0.02413711
    59       0.76101695     0.000000   0.02025342   0.01211862   0.01696381   0.05508678
    60       0.80000000     0.000000   0.00608826   0.01128133   0.04455166   0.03571241
